1288
	Energy:       0.0000000
  C        7.68562       -3.89692       -5.25116
  C        6.60054       -4.44663       -6.01205
  C        5.56133       -5.13935       -5.29760
  C        4.65715       -6.04744       -5.91176
  C        4.30037       -7.23740       -5.24958
  C        4.10951       -8.44791       -5.94779
  C        4.53023       -9.66449       -5.33899
  C        4.51965       -9.68452       -3.91898
  C        5.01311      -10.79510       -3.20483
  C        5.75922      -11.76300       -3.91334
  C        6.67524      -12.54370       -3.15816
  C        6.64621      -12.53460       -1.74697
  C        7.74739      -13.00760       -1.00647
  C        8.96583      -13.20660       -1.69571
  C        9.00726      -13.24870       -3.10603
  C       10.22850      -13.11180       -3.82256
  C       10.24100      -13.12970       -5.24518
  C       11.34550      -12.56240       -5.97116
  C        9.01001      -13.46450       -5.87669
  C        7.80039      -13.18430       -5.21155
  C        7.70889      -12.96370        0.40669
  C       10.15330      -13.05320       -0.96091
  C       11.29840      -12.62590       -1.66782
  C        6.58594      -12.49970        1.11238
  C        5.66975      -11.75680        0.35919
  C        4.95016      -10.78510        1.06756
  C        4.47813       -9.68534        0.34948
  C        4.26762       -8.50889        1.08794
  C        4.13102       -8.51358        2.50068
  C        4.14491       -7.26307        3.18248
  C        4.78543       -6.19557        2.50648
  C        5.35894       -5.11249        3.21738
  C        4.16813       -9.77375        3.15546
  C        4.84104      -10.82130        2.47113
  C        5.69135      -11.76970       -1.05408
  C        6.66072      -12.74720       -5.91269
  C        7.80174      -13.08080       -3.81736
  C       11.33470      -12.63420       -3.08827
  C        4.48988       -9.69312       -1.06448
  C        4.28802       -8.49723       -1.76983
  C        4.97831      -10.80250       -1.78702
  C        4.40929       -7.29437       -1.04334
  C        4.83518       -6.14805       -1.74255
  C        5.55207       -5.18502       -1.01333
  C        5.55346       -5.22127        0.39945
  C        4.85727       -6.21149        1.10069
  C        4.41489       -7.31574        0.36891
  C       12.31610      -11.89490       -3.78874
  C       13.02710      -10.92050       -3.03375
  C       13.49900       -9.77453       -3.71247
  C       12.36180      -11.88570       -5.21330
  C       13.28940      -10.97600       -5.79057
  C       13.62310       -9.79186       -5.10647
  C        5.56909       -5.14369       -3.87562
  C        4.83710       -6.12541       -3.15372
  C        6.42479       -4.44851        2.56570
  C        7.52740       -3.89167        3.25455
  C        8.77237       -3.91815        2.57684
  C        9.99848       -3.90126        3.28461
  C       11.11220       -4.47908        2.62736
  C       12.15750       -5.14019        3.31160
  C       12.75400       -6.23084        2.62439
  C       12.71930       -6.27502        1.21865
  C       13.22490       -7.37011        0.50965
  C       13.40410       -8.54954        1.24482
  C       13.37510       -7.28532        3.33465
  C       13.44880       -8.53766        2.66503
  C       12.02820       -5.30526        0.49182
  C       11.08500       -4.56036        1.21098
  C        9.99414       -4.08637        0.47055
  C       13.39370       -9.78497        3.33628
  C       12.81520      -10.86320        2.62680
  C       12.20750      -11.94040        3.31732
  C        6.48567       -4.50005        1.15011
  C        7.60348       -4.04011        0.43952
  C        8.79171       -3.94807        1.17218
  C       13.56160       -8.54683       -3.02231
  C       13.34840       -7.35203       -3.76254
  C       12.82940       -6.24873       -3.05376
  C       12.11570       -5.27127       -3.78075
  C       12.14060       -5.24073       -5.20271
  C       11.16740       -4.50089       -3.05303
  C       10.06980       -3.95457       -3.74708
  C       10.12410       -3.84598       -5.13960
  C       13.51470       -8.55394       -1.61196
  C       13.27470       -7.36351       -0.90414
  C       12.80430       -6.25501       -1.63597
  C       13.37470       -9.76212       -0.89775
  C       12.97600      -10.90630       -1.62096
  C       12.22980      -11.87520       -0.92355
  C       12.16500      -11.84550        0.48987
  C       12.82280      -10.85190        1.22057
  C       13.30520       -9.74443        0.51488
  C       11.19790      -12.56960        1.20380
  C       10.10250      -13.00710        0.45053
  C        8.88650      -13.09560        1.14603
  C        8.83488      -13.12890        2.55377
  C       10.05150      -13.16110        3.27588
  C       11.18810      -12.62670        2.61992
  C        7.58043      -13.13210        3.22445
  C        6.48772      -12.56950        2.52572
  C        5.40440      -11.91410        3.17148
  C        7.61482       -3.98517       -0.97230
  C        8.82826       -3.81889       -1.66574
  C        6.50296       -4.42504       -1.71859
  C        6.52024       -4.40743       -3.13754
  C        7.64860       -3.92298       -3.82986
  C        8.84283       -3.78449       -3.07407
  C       10.01690       -4.03720       -0.93884
  C       11.13950       -4.52072       -1.64295
  C       12.06340       -5.29263       -0.92190
  C       13.39250       -7.35896       -5.18239
  C       12.83830       -6.26340       -5.93359
  C       13.82250       -8.57175       -5.78813
  C        8.93821       -3.56876       -5.84482
  C        4.77085       -4.75779        4.44961
  C        4.99479       -3.46352        5.01295
  C        3.82971       -2.81185        5.51661
  C        2.61290       -3.53084        5.67622
  C        2.58090       -4.93962        5.47171
  C        3.67133       -5.57783        4.84720
  C        7.48653       -3.22542        4.49272
  C        6.24266       -2.75294        5.00648
  C       10.00150       -3.22729        4.51924
  C        8.74006       -2.67498        4.90009
  C       11.22910       -2.75508        5.06745
  C       12.70180       -4.77171        4.56040
  C       12.47230       -3.47068        5.10423
  C       13.92850       -6.95325        4.58868
  C       13.78350       -5.58803        4.99807
  C       14.87020       -4.94554        5.61939
  C       16.06400       -5.68546        5.77368
  C       16.06580       -7.09861        5.61442
  C       14.92020       -7.79721        5.15605
  C        3.53818      -10.09690        4.37485
  C        2.53925       -9.24020        4.93282
  C        1.39765       -9.93790        5.41768
  C        1.39632      -11.34960        5.58919
  C        2.58845      -12.08830        5.42293
  C        3.67759      -11.45950        4.79015
  C        4.78485      -12.27090        4.39067
  C        5.00831      -13.54940        4.97807
  C        7.51276      -13.78000        4.47389
  C       10.02330      -13.78720        4.53475
  C        8.75570      -14.31810        4.91836
  C        8.73810      -15.61140        5.45754
  C        9.96332      -16.29350        5.59443
  C       11.23570      -14.24760        5.11813
  C       12.71480      -12.26070        4.59272
  C       12.47750      -13.54230        5.15875
  C       13.93380      -10.08520        4.60247
  C       14.92170       -9.23107        5.15790
  C       16.07240       -9.92974        5.60498
  C       16.07380      -11.33830        5.77222
  C       14.87670      -12.07380        5.64950
  C       13.78890      -11.43890        5.02804
  C        3.53292       -6.93810        4.41310
  C        2.53400       -7.79633        4.95392
  C        1.39393       -7.09569        5.44739
  C        1.38766       -5.68023        5.62735
  C        6.27007       -1.38963        5.40799
  C        5.05836       -0.68393        5.58592
  C       13.62760       -2.81692        5.62229
  C       13.61640       -1.40664        5.80227
  C       14.82980       -0.69387        5.97539
  C       16.05270       -1.41103        6.05545
  C       16.05440       -2.83517        6.01076
  C       14.84070       -3.53688        5.79486
  C        1.40046       -2.82894        5.91190
  C        1.40175       -1.40547        5.96044
  C        0.17266       -0.69225        6.00828
  C        3.84211       -1.40064        5.69290
  C        2.62609       -0.68872        5.85937
  C       13.62780      -14.18580        5.69370
  C       14.84440      -13.47310        5.84969
  C       16.05630      -14.17270        6.06843
  C       16.04950      -15.58920        6.13470
  C       14.82360      -16.29680        6.06329
  C        0.18712      -12.05220        5.81230
  C        0.18474      -13.46490        5.95375
  C        2.62290      -13.48460        5.65248
  C        1.41223      -14.17640        5.92553
  C        1.41056      -15.59080        6.01278
  C        0.18123      -16.29940        6.09207
  C        2.63793      -16.29590        5.91997
  C        3.85411      -15.58750        5.72868
  C        3.84489      -14.18990        5.50442
  C        6.26407      -14.24140        4.99500
  C       13.61010      -15.58790        5.89115
  C        5.79583      -11.77930       -5.33578
  C        5.13898      -10.73560       -6.07776
  C        5.21889      -10.58270       -7.67384
  C        6.77157       -4.50949       -7.60194
  C       11.29130       -4.26977       -5.80133
  C        5.86212       -9.30810       -8.03034
  C        3.84945      -10.56360       -8.19630
  C        5.93396      -11.63240       -8.41454
  C        7.90370       -5.40004       -7.90895
  C        7.08377       -3.17002       -8.11364
  C        5.59779       -4.95784       -8.36554
  C       12.85530       -6.37053       -7.53362
  C       14.25270       -6.39860       -7.97321
  C       12.20880       -5.28450       -8.28816
  C       12.21250       -7.62062       -7.96689
  C       11.19290      -12.42480       -7.56101
  C       10.09380      -11.47960       -7.81640
  C       10.84170      -13.72070       -8.15132
  C       12.38360      -11.98040       -8.29912
  C        4.38670       -7.26381       -3.85572
  C        4.28974       -8.49532       -3.17843
  C        8.73208       -1.36039        5.38738
  C        9.96745       -0.68093        5.49644
  C        7.49617       -0.67736        5.45973
  C       12.40220       -0.68978        5.68599
  C       11.19390       -1.39307        5.47479
  C       12.39340      -16.29470        5.78074
  C       11.19130      -15.59300        5.55992
  C        7.50368      -16.28960        5.54243
  C        6.28312      -15.58520        5.45126
  C        5.07317      -16.29060        5.64658
  C        0.18507       -9.22146        5.54446
  C        0.18017       -7.81028        5.55646
  C        0.17519       -4.97022        5.82012
  C        0.17323       -3.54969        5.92931
  N        4.67755       -5.27624       -8.95729
  N        7.33399       -2.11289       -8.45958
  N       15.35350       -6.41256       -8.27242
  N       11.72740       -4.44342       -8.88769
  N        8.82818       -6.05474       -8.05473
  N        2.76744      -10.55670       -8.55899
  N        6.47616      -12.43940       -9.00925
  N       10.56190      -14.74270       -8.57206
  N       13.31140      -11.67290       -8.88417
  N        9.19578      -10.77970       -7.90702
  N        6.31832       -8.28384       -8.24897
  N       11.75400       -8.62858       -8.24668
  H        4.21248       -5.83885       -6.85869
  H        3.71807       -8.42951       -6.94290
  H        8.97952      -13.86840       -6.86724
  H        6.45736      -13.17600       -6.86861
  H       13.75330      -11.17570       -6.73164
  H       14.24640       -8.58783       -6.77051
  H        9.00870       -3.18192       -6.84117
  H       11.52660       -3.83604       -6.74900
  C       -9.60155       -3.95886       -5.25841
  C      -10.68940       -4.51142       -6.01333
  C      -11.72330       -5.20455       -5.28971
  C      -12.63310       -6.11489       -5.89334
  C      -12.98520       -7.30214       -5.22433
  C      -13.17530       -8.51556       -5.91855
  C      -12.75220       -9.73020       -5.30798
  C      -12.75480       -9.74449       -3.88645
  C      -12.25620      -10.85210       -3.16990
  C      -11.51500      -11.82430       -3.87951
  C      -10.59380      -12.60200       -3.12457
  C      -10.60820      -12.58340       -1.71160
  C       -9.49968      -13.05210       -0.97547
  C       -8.28737      -13.25770       -1.67166
  C       -8.26153      -13.30750       -3.08306
  C       -7.04617      -13.17130       -3.80883
  C       -7.04509      -13.19500       -5.23194
  C       -5.94460      -12.62940       -5.96490
  C       -8.28023      -13.53320       -5.85591
  C       -9.48467      -13.24960       -5.18470
  C       -9.51887      -13.00030        0.43827
  C       -7.09286      -13.10070       -0.94586
  C       -5.95582      -12.67480       -1.66381
  C      -10.63220      -12.52650        1.14997
  C      -11.56000      -11.78940        0.39991
  C      -12.27440      -10.81530        1.10931
  C      -12.76200       -9.72226        0.38848
  C      -12.96530       -8.54085        1.12427
  C      -13.07460       -8.53481        2.53996
  C      -13.03770       -7.28277        3.21998
  C      -12.41020       -6.21994        2.53054
  C      -11.81990       -5.13607        3.23258
  C      -13.01600       -9.78939        3.20288
  C      -12.35710      -10.84240        2.51506
  C      -11.55700      -11.81260       -1.01525
  C      -10.62460      -12.80840       -5.88488
  C       -9.47243      -13.14270       -3.78948
  C       -5.93453      -12.68980       -3.08394
  C      -12.76550       -9.73936       -1.02733
  C      -12.97440       -8.54602       -1.73667
  C      -12.28040      -10.85230       -1.75019
  C      -12.84550       -7.33824       -1.01507
  C      -12.42090       -6.19628       -1.72274
  C      -11.69270       -5.23296       -1.00090
  C      -11.67160       -5.26143        0.41357
  C      -12.36480       -6.24564        1.12376
  C      -12.82520       -7.35060        0.39889
  C       -4.95905      -11.95300       -3.79302
  C       -4.24325      -10.97420       -3.04872
  C       -3.77663       -9.83076       -3.73324
  C       -4.92374      -11.95000       -5.21642
  C       -4.00092      -11.04180       -5.80322
  C       -3.65968       -9.85478       -5.12677
  C      -11.70430       -5.20368       -3.86668
  C      -12.43220       -6.18059       -3.13527
  C      -10.76510       -4.47322        2.56980
  C       -9.65581       -3.90870        3.24816
  C       -8.41967       -3.94059        2.56176
  C       -7.18372       -3.91650        3.25939
  C       -6.07845       -4.49869        2.59790
  C       -5.01844       -5.15029        3.27569
  C       -4.43901       -6.24973        2.59047
  C       -4.49933       -6.30265        1.18595
  C       -4.00541       -7.40234        0.47687
  C       -3.81973       -8.57858        1.21421
  C       -3.79979       -7.29802        3.29501
  C       -3.74846       -8.55646        2.63252
  C       -5.19850       -5.33678        0.46031
  C       -6.13163       -4.58742        1.18253
  C       -7.23133       -4.12190        0.44714
  C       -3.78535       -9.80306        3.30427
  C       -4.38167      -10.88440        2.60970
  C       -4.97274      -11.96220        3.31029
  C      -10.72920       -4.53761        1.15414
  C       -9.62120       -4.07947        0.43280
  C       -8.42554       -3.98137        1.15683
  C       -3.70693       -8.59982       -3.04939
  C       -3.92409       -7.40831       -3.79061
  C       -4.43659       -6.30201       -3.08364
  C       -5.15846       -5.33011       -3.80825
  C       -5.14541       -5.30321       -5.22953
  C       -6.10077       -4.55776       -3.07864
  C       -7.20336       -4.01466       -3.76731
  C       -7.16225       -3.90731       -5.15976
  C       -3.74168       -8.59878       -1.64057
  C       -3.97131       -7.40458       -0.93611
  C       -4.44746       -6.29960       -1.66729
  C       -3.87634       -9.80392       -0.92242
  C       -4.27985      -10.95260       -1.63715
  C       -5.01718      -11.92030       -0.93009
  C       -5.06370      -11.88210        0.48365
  C       -4.40058      -10.88270        1.20411
  C       -3.93007       -9.77749        0.49016
  C       -6.01948      -12.60620        1.20866
  C       -7.12356      -13.04840        0.46560
  C       -8.33270      -13.13280        1.16970
  C       -8.35864      -13.15900        2.57862
  C       -7.13193      -13.18650        3.29144
  C       -6.00409      -12.65240        2.62559
  C       -9.60420      -13.15350        3.25958
  C      -10.70410      -12.58970        2.56578
  C      -11.77440      -11.92570        3.21889
  C       -9.63060       -4.03149       -0.97915
  C       -8.42401       -3.86851       -1.68133
  C      -10.74950       -4.47476       -1.71679
  C      -10.74810       -4.46358       -3.13673
  C       -9.62600       -3.98098       -3.83757
  C       -8.42536       -3.84154       -3.08948
  C       -7.22863       -4.08091       -0.96194
  C       -6.11381       -4.56843       -1.67035
  C       -5.18148       -5.33303       -0.95308
  C       -3.88906       -7.42096       -5.20887
  C       -4.45058       -6.32854       -5.95863
  C       -3.46193       -8.63626       -5.81251
  C       -8.35400       -3.63101       -5.85807
  C      -12.37640       -4.76894        4.47431
  C      -12.14550       -3.47029        5.02999
  C      -13.29870       -2.81675        5.55418
  C      -14.50850       -3.53718        5.73051
  C      -14.53980       -4.94609        5.53597
  C      -13.46270       -5.58838        4.89602
  C       -9.66881       -3.22846        4.48026
  C      -10.90240       -2.75560        5.00921
  C       -7.15224       -3.23220        4.48837
  C       -8.40928       -2.67728        4.87668
  C       -5.91235       -2.75935        5.02243
  C       -4.43687       -4.77174        4.50706
  C       -4.66126       -3.46877        5.04897
  C       -3.20317       -6.95488        4.52722
  C       -3.34077       -5.58427        4.92944
  C       -2.24354       -4.94048        5.53668
  C       -1.04308       -5.67998        5.67941
  C       -1.04088       -7.09653        5.51686
  C       -2.19570       -7.79855        5.07470
  C      -13.60290      -10.10100        4.44548
  C      -14.58530       -9.24195        5.02210
  C      -15.71750       -9.93590        5.52442
  C      -15.71920      -11.34500        5.69287
  C      -14.53370      -12.08640        5.51542
  C      -13.45510      -11.45900        4.86845
  C      -12.36080      -12.27500        4.45413
  C      -12.13180      -13.55200        5.04520
  C       -9.64380      -13.79370        4.51492
  C       -7.13149      -13.79890        4.55697
  C       -8.39445      -14.32700        4.95498
  C       -8.39811      -15.61340        5.50957
  C       -7.16869      -16.29370        5.63659
  C       -5.90564      -14.25130        5.12930
  C       -4.42780      -12.27420        4.57347
  C       -4.65730      -13.55100        5.14996
  C       -3.20075      -10.09740        4.55213
  C       -2.19518       -9.23740        5.07884
  C       -1.03330       -9.93518        5.50761
  C       -1.03031      -11.34610        5.68197
  C       -2.23399      -12.08220        5.58333
  C       -3.33775      -11.45240        4.98162
  C      -13.60790       -6.94958        4.46786
  C      -14.59040       -7.80212        5.03652
  C      -15.71950       -7.10036        5.54525
  C      -15.72580       -5.68639        5.71496
  C      -10.86490       -1.39510        5.42206
  C      -12.07090       -0.68946        5.62464
  C       -3.49570       -2.81570        5.55412
  C       -3.50557       -1.40534        5.73867
  C       -2.28599       -0.69368        5.90860
  C       -1.05635       -1.40723        5.98335
  C       -1.05464       -2.83130        5.93122
  C       -2.27467       -3.53102        5.71637
  C      -15.71390       -2.83366        5.97839
  C      -15.71280       -1.41047        6.02599
  C      -16.93580       -0.69453        6.07829
  C      -13.28350       -1.40682        5.73917
  C      -14.49390       -0.69283        5.92034
  C       -3.49195      -14.18990        5.66460
  C       -2.26634      -13.48010        5.79446
  C       -1.04545      -14.17560        5.99967
  C       -1.05037      -15.59230        6.07417
  C       -2.28333      -16.29660        6.02315
  C      -16.92590      -12.04670        5.90988
  C      -16.93010      -13.45930        6.04059
  C      -14.50260      -13.48210        5.74002
  C      -15.70910      -14.17470        6.01356
  C      -15.71240      -15.58860        6.09891
  C      -16.93730      -16.29920        6.16766
  C      -14.48890      -16.29590        6.01439
  C      -13.27620      -15.58680        5.81963
  C      -13.28650      -14.19100        5.58574
  C      -10.88140      -14.25000        5.05532
  C       -3.50534      -15.59130        5.86879
  C      -11.48810      -11.84290       -5.30387
  C      -12.14900      -10.80310       -6.04960
  C      -12.07460      -10.65700       -7.65060
  C      -10.52300       -4.57771       -7.60354
  C       -5.99790       -4.33110       -5.82359
  C      -11.43460       -9.38473       -8.01764
  C      -13.44210      -10.63890       -8.17765
  C      -11.36310      -11.70700       -8.39436
  C       -9.38959       -5.46645       -7.91252
  C      -10.21430       -3.23886       -8.11911
  C      -11.69810       -5.02971       -8.36167
  C       -4.44017       -6.44158       -7.55549
  C       -3.04130       -6.46985       -7.99012
  C       -5.08971       -5.35547       -8.30760
  C       -5.08594       -7.69428       -7.97813
  C       -6.10210      -12.49480       -7.55504
  C       -7.20176      -11.54970       -7.80888
  C       -6.45618      -13.79090       -8.14318
  C       -4.91330      -12.05220       -8.29880
  C      -12.88960       -7.32182       -3.83040
  C      -12.98180       -8.55102       -3.14734
  C       -8.40510       -1.36534        5.37095
  C       -7.16722       -0.68588        5.47384
  C       -9.63871       -0.68380        5.46598
  C       -4.72588       -0.69295        5.63664
  C       -5.93953       -1.39686        5.43354
  C       -4.72910      -16.29470        5.78261
  C       -5.93889      -15.59500        5.57911
  C       -9.63123      -16.29010        5.61549
  C      -10.85340      -15.58830        5.52711
  C      -12.05960      -16.29110        5.74081
  C      -16.92480       -9.21876        5.65481
  C      -16.92880       -7.81176        5.66455
  C      -16.93320       -4.97582        5.91103
  C      -16.93480       -3.55602        6.00963
  N      -12.61650       -5.34784       -8.95624
  N       -9.96513       -2.18178       -8.46618
  N       -1.93597       -6.48195       -8.27239
  N       -5.57671       -4.51347       -8.90133
  N       -8.46513       -6.12127       -8.05862
  N      -14.51870      -10.63080       -8.55593
  N      -10.82880      -12.51250       -8.99821
  N       -6.73721      -14.81200       -8.56497
  N       -3.98435      -11.74440       -8.88216
  N       -8.10165      -10.85210       -7.89805
  N      -10.98440       -8.36214       -8.25533
  N       -5.55129       -8.70432       -8.23899
  H      -13.08370       -5.91205       -6.83829
  H      -13.56630       -8.50198       -6.91400
  H       -8.32157      -13.94130       -6.84482
  H      -10.82470      -13.22500       -6.84724
  H       -3.54374      -11.24610       -6.74657
  H       -3.04248       -8.65646       -6.79708
  H       -8.29722       -3.24903       -6.85689
  H       -5.76122       -3.88526       -6.76473
  C       -9.63920       13.29570       -5.40015
  C      -10.72650       12.74850       -6.15986
  C      -11.75570       12.04920       -5.43613
  C      -12.66420       11.14680       -6.05081
  C      -13.02390        9.95497       -5.38970
  C      -13.21420        8.74912       -6.09582
  C      -12.79160        7.52590       -5.49915
  C      -12.78800        7.49208       -4.07726
  C      -12.28740        6.37493       -3.37345
  C      -11.54920        5.41409       -4.09405
  C      -10.62450        4.62710       -3.35307
  C      -10.63190        4.61986       -1.94226
  C       -9.52420        4.13593       -1.21562
  C       -8.31546        3.94009       -1.91593
  C       -8.29274        3.91528       -3.32582
  C       -7.07895        4.06072       -4.04877
  C       -7.08117        4.05896       -5.46981
  C       -5.98148        4.63303       -6.19637
  C       -8.31943        3.72844       -6.09171
  C       -9.52298        4.00620       -5.41778
  C       -9.53828        4.15505        0.19888
  C       -7.12231        4.08301       -1.18959
  C       -5.98938        4.52198       -1.90224
  C      -10.64830        4.61133        0.92082
  C      -11.57220        5.36725        0.18123
  C      -12.28440        6.32742        0.90348
  C      -12.77190        7.43478        0.19634
  C      -12.97090        8.60403        0.94389
  C      -13.07280        8.56935        2.35848
  C      -13.02990        9.80861        3.04970
  C      -12.41050       10.89280        2.37682
  C      -11.81940       11.96030        3.09849
  C      -13.01710        7.29982        3.00651
  C      -12.36160        6.25894        2.30776
  C      -11.57660        5.37767       -1.23395
  C      -10.66650        4.45371       -6.10746
  C       -9.50548        4.09539       -4.02360
  C       -5.96785        4.52964       -3.32062
  C      -12.78370        7.45037       -1.21844
  C      -12.99720        8.65492       -1.91377
  C      -12.30190        6.35020       -1.95463
  C      -12.86510        9.85232       -1.17978
  C      -12.44810       11.00940       -1.87532
  C      -11.71940       11.96750       -1.14390
  C      -11.69000       11.91050        0.27185
  C      -12.37340       10.90600        0.96982
  C      -12.83620        9.81061        0.23401
  C       -4.99786        5.28038       -4.02158
  C       -4.28655        6.24956       -3.26757
  C       -3.82125        7.40290       -3.93894
  C       -4.95879        5.30523       -5.44407
  C       -4.03136        6.21943       -6.01707
  C       -3.69603        7.40019       -5.33096
  C      -11.73820       12.03430       -4.01242
  C      -12.46520       11.04590       -3.28896
  C      -10.77520       12.65450        2.44207
  C       -9.66671       13.20940        3.13127
  C       -8.43436       13.21580        2.43511
  C       -7.19659       13.20630        3.13517
  C       -6.09638       12.63600        2.45699
  C       -5.04214       11.95360        3.12265
  C       -4.47600       10.86400        2.41767
  C       -4.54425       10.84770        1.01320
  C       -4.05705        9.75675        0.29241
  C       -3.87432        8.56640        1.01582
  C       -3.84144        9.79474        3.10413
  C       -3.79617        8.54856        2.43264
  C       -5.23291       11.83550        0.30162
  C       -6.15745       12.58220        1.03754
  C       -7.25508       13.07440        0.31069
  C       -3.81667        7.28776        3.09127
  C       -4.41425        6.21963        2.38795
  C       -4.98853        5.11717        3.07231
  C      -10.74570       12.62540        1.02187
  C       -9.64611       13.11190        0.30214
  C       -8.44771       13.20790        1.02606
  C       -3.75571        8.62445       -3.24372
  C       -3.96769        9.82826       -3.97199
  C       -4.48097       10.92730       -3.25532
  C       -5.20051       11.91150       -3.97085
  C       -5.18925       11.94990       -5.39278
  C       -6.13632       12.68340       -3.22951
  C       -7.23948       13.23710       -3.91294
  C       -7.20265       13.34830       -5.30676
  C       -3.79497        8.60120       -1.83596
  C       -4.02270        9.78589       -1.12032
  C       -4.49110       10.90700       -1.83867
  C       -3.92755        7.38536       -1.13110
  C       -4.32531        6.24739       -1.85736
  C       -5.05517        5.26697       -1.16100
  C       -5.10005        5.27542        0.25186
  C       -4.43971        6.26231        0.98340
  C       -3.98095        7.38165        0.28000
  C       -6.04682        4.53219        0.96959
  C       -7.15072        4.10511        0.22213
  C       -8.35464        4.00172        0.92926
  C       -8.37549        3.92977        2.33645
  C       -7.14490        3.88005        3.04434
  C       -6.02588        4.44515        2.38446
  C       -9.62161        3.90555        3.01605
  C      -10.71700        4.50200        2.33405
  C      -11.78810        5.15207        2.99434
  C       -9.66076       13.18330       -1.11128
  C       -8.45469       13.36240       -1.81558
  C      -10.78090       12.74320       -1.85390
  C      -10.78220       12.77090       -3.27614
  C       -9.66165       13.26570       -3.97685
  C       -8.45952       13.40650       -3.22668
  C       -7.25692       13.13800       -1.09913
  C       -6.14528       12.65390       -1.81865
  C       -5.21798       11.86860       -1.11193
  C       -3.92845        9.83390       -5.38993
  C       -4.49244       10.93130       -6.13149
  C       -3.49741        8.62643       -6.00479
  C       -8.39463       13.62760       -6.00292
  C      -12.37290       12.27210        4.35661
  C      -12.14080       13.53600        4.97238
  C      -13.29360       14.15960        5.53106
  C      -14.50940       13.44490        5.66835
  C      -14.54160       12.05450        5.41461
  C      -13.45820       11.44170        4.76043
  C       -9.67068       13.81200        4.40473
  C      -10.89710       14.24290        4.98249